Title: **** atividade 3 ****
Date: Sat Sep 18 01:04:38  2021
Plotname: DC transfer characteristic
Flags: real
No. Variables: 18
No. Points: 1001    
Variables:
	0	v(v-sweep)	voltage
	1	v(n1)	voltage
	2	v(in)	voltage
	3	v(n2)	voltage
	4	v(n3)	voltage
	5	v(out)	voltage
	6	v(mn#gate)	voltage
	7	v(mn#dbody)	voltage
	8	v(mn#body)	voltage
	9	v(mn#sbody)	voltage
	10	v(mp#gate)	voltage
	11	v(mp#dbody)	voltage
	12	v(mp#body)	voltage
	13	v(mp#sbody)	voltage
	14	i(vn)	current
	15	i(vp)	current
	16	i(vin)	current
	17	i(vdd)	current
Values:
0		0.000000000000000e+00
	1.000000000000000e+00
	0.000000000000000e+00
	9.999960111846895e-01
	9.999960111846895e-01
	9.999960111846895e-01
	7.680602790403618e-12
	8.522219155761539e-12
	1.894498166605478e-12
	9.472490832956323e-13
	3.048849168994840e-10
	9.999999999892772e-01
	9.999999999785544e-01
	9.999999999892772e-01
	1.821875475461164e-09
	1.821875475461164e-09
	3.002307398252731e-10
	-2.107705038278951e-09
1		1.000000000000000e-03
	1.000000000000000e+00
	1.000000000000000e-03
	9.999959108584937e-01
	9.999959108584937e-01
	9.999959108584937e-01
	1.000000007648502e-03
	8.522228577770313e-12
	1.894518515515960e-12
	9.472592577508735e-13
	1.000000303411280e-03
	9.999999999894764e-01
	9.999999999789525e-01
	9.999999999894762e-01
	1.869901348995270e-09
	1.869901348995270e-09
	2.987890156645745e-10
	-2.154349337812889e-09
2		2.000000000000000e-03
	1.000000000000000e+00
	2.000000000000000e-03
	9.999958050001910e-01
	9.999958050001910e-01
	9.999958050001910e-01
	2.000000007616644e-03
	8.522238497370530e-12
	1.894539942590931e-12
	9.472699712883589e-13
	2.000000301947537e-03
	9.999999999896689e-01
	9.999999999793379e-01
	9.999999999896689e-01
	1.920513463321213e-09
	1.920513463321213e-09
	2.973570231191991e-10
	-2.203589213878310e-09
3		3.000000000000000e-03
	1.000000000000000e+00
	3.000000000000000e-03
	9.999956976032687e-01
	9.999956976032687e-01
	9.999956976032687e-01
	3.000000007584846e-03
	8.522248550670954e-12
	1.894561660145613e-12
	9.472808300656998e-13
	3.000000300487288e-03
	9.999999999898598e-01
	9.999999999797198e-01
	9.999999999898599e-01
	1.971823560876530e-09
	1.971823560876530e-09
	2.959284171877297e-10
	-2.253530334561660e-09
4		4.000000000000000e-03
	1.000000000000000e+00
	4.000000000000000e-03
	9.999955871784808e-01
	9.999955871784808e-01
	9.999955871784808e-01
	4.000000007553168e-03
	8.522258867347029e-12
	1.894583949869578e-12
	9.472919749276821e-13
	4.000000299034065e-03
	9.999999999900473e-01
	9.999999999800949e-01
	9.999999999900475e-01
	2.024507960796465e-09
	2.024507960796465e-09
	2.945066256837547e-10
	-2.304852406154190e-09
5		5.000000000000000e-03
	1.000000000000000e+00
	5.000000000000000e-03
	9.999954736420472e-01
	9.999954736420472e-01
	9.999954736420472e-01
	5.000000007521611e-03
	8.522269454204669e-12
	1.894606826631360e-12
	9.473034133085731e-13
	5.000000297587816e-03
	9.999999999902317e-01
	9.999999999804633e-01
	9.999999999902316e-01
	2.078602979300147e-09
	2.078602979300147e-09
	2.930915961318892e-10
	-2.357591497026412e-09
6		6.000000000000000e-03
	1.000000000000000e+00
	6.000000000000000e-03
	9.999953569078839e-01
	9.999953569078839e-01
	9.999953569078839e-01
	6.000000007490173e-03
	8.522280318235773e-12
	1.894630305706016e-12
	9.473151528459010e-13
	6.000000296148490e-03
	9.999999999904123e-01
	9.999999999808248e-01
	9.999999999904123e-01
	2.134145877163637e-09
	2.134145877163637e-09
	2.916832816945991e-10
	-2.411785077205408e-09
7		7.000000000000000e-03
	1.000000000000000e+00
	7.000000000000000e-03
	9.999952368875493e-01
	9.999952368875493e-01
	9.999952368875493e-01
	7.000000007458854e-03
	8.522291466621102e-12
	1.894654402781688e-12
	9.473272013837366e-13
	7.000000294716036e-03
	9.999999999905896e-01
	9.999999999811797e-01
	9.999999999905899e-01
	2.191174880319773e-09
	2.191174880319773e-09
	2.902816320649038e-10
	-2.467471171829771e-09
8		8.000000000000000e-03
	1.000000000000000e+00
	8.000000000000000e-03
	9.999951134901742e-01
	9.999951134901742e-01
	9.999951134901742e-01
	8.000000007427652e-03
	8.522302906733347e-12
	1.894679133966803e-12
	9.473395669762942e-13
	8.000000293290408e-03
	9.999999999907641e-01
	9.999999999815282e-01
	9.999999999907641e-01
	2.249729206095855e-09
	2.249729206095855e-09
	2.888866056094397e-10
	-2.524689041161210e-09
9		9.000000000000001e-03
	1.000000000000000e+00
	9.000000000000001e-03
	9.999949866224004e-01
	9.999949866224004e-01
	9.999949866224004e-01
	9.000000007396571e-03
	8.522314646140608e-12
	1.894704515797930e-12
	9.473522578918575e-13
	9.000000291871554e-03
	9.999999999909350e-01
	9.999999999818706e-01
	9.999999999909353e-01
	2.309849087066100e-09
	2.309849087066100e-09
	2.874981433476087e-10
	-2.583478639350822e-09
10		1.000000000000000e-02
	1.000000000000000e+00
	1.000000000000000e-02
	9.999948561883115e-01
	9.999948561883115e-01
	9.999948561883115e-01
	1.000000000736561e-02
	8.522326692610077e-12
	1.894730565248201e-12
	9.473652826169930e-13
	1.000000029045943e-02
	9.999999999911030e-01
	9.999999999822063e-01
	9.999999999911031e-01
	2.371575797451963e-09
	2.371575797451963e-09
	2.861162314016230e-10
	-2.643881558128669e-09
11		1.100000000000000e-02
	1.000000000000000e+00
	1.100000000000000e-02
	9.999947220893654e-01
	9.999947220893654e-01
	9.999947220893654e-01
	1.100000000733477e-02
	8.522339054112010e-12
	1.894757299736253e-12
	9.473786498610189e-13
	1.100000028905399e-02
	9.999999999912680e-01
	9.999999999825364e-01
	9.999999999912682e-01
	2.434951678817725e-09
	2.434951678817725e-09
	2.847407865047558e-10
	-2.705939791680656e-09
12		1.200000000000000e-02
	1.000000000000000e+00
	1.200000000000000e-02
	9.999945842243219e-01
	9.999945842243219e-01
	9.999945842243219e-01
	1.200000000730404e-02
	8.522351738823900e-12
	1.894784737135684e-12
	9.473923685607346e-13
	1.200000028765518e-02
	9.999999999914300e-01
	9.999999999828603e-01
	9.999999999914302e-01
	2.500020167175553e-09
	2.500020167175553e-09
	2.833717809014313e-10
	-2.769696819115985e-09
13		1.300000000000000e-02
	1.000000000000000e+00
	1.300000000000000e-02
	9.999944424891724e-01
	9.999944424891724e-01
	9.999944424891724e-01
	1.300000000727342e-02
	8.522364755134921e-12
	1.894812895784963e-12
	9.474064478853736e-13
	1.300000028626295e-02
	9.999999999915891e-01
	9.999999999831781e-01
	9.999999999915891e-01
	2.566825819765289e-09
	2.566825819765289e-09
	2.820091729582863e-10
	-2.835197285278035e-09
14		1.400000000000001e-02
	1.000000000000000e+00
	1.400000000000001e-02
	9.999942967770631e-01
	9.999942967770631e-01
	9.999942967770631e-01
	1.400000000724293e-02
	8.522378111650506e-12
	1.894841794497772e-12
	9.474208972417781e-13
	1.400000028487727e-02
	9.999999999917450e-01
	9.999999999834903e-01
	9.999999999917452e-01
	2.635414344165279e-09
	2.635414344165279e-09
	2.806529071641695e-10
	-2.902486681555239e-09
15		1.500000000000001e-02
	1.000000000000000e+00
	1.500000000000001e-02
	9.999941469782204e-01
	9.999941469782204e-01
	9.999941469782204e-01
	1.500000000721255e-02
	8.522391817197194e-12
	1.894871452573783e-12
	9.474357262797837e-13
	1.500000028349808e-02
	9.999999999918983e-01
	9.999999999837967e-01
	9.999999999918984e-01
	2.705832625885321e-09
	2.705832625885321e-09
	2.793029557635052e-10
	-2.971612025892689e-09
16		1.600000000000001e-02
	1.000000000000000e+00
	1.600000000000001e-02
	9.999939929798719e-01
	9.999939929798719e-01
	9.999939929798719e-01
	1.600000000718228e-02
	8.522405880827602e-12
	1.894901889809827e-12
	9.474509448978051e-13
	1.600000028212535e-02
	9.999999999920485e-01
	9.999999999840972e-01
	9.999999999920486e-01
	2.778128758832744e-09
	2.778128758832744e-09
	2.779592736534831e-10
	-3.042621293802839e-09
17		1.700000000000001e-02
	1.000000000000000e+00
	1.700000000000001e-02
	9.999938346661661e-01
	9.999938346661661e-01
	9.999938346661661e-01
	1.700000000715213e-02
	8.522420311825614e-12
	1.894933126511433e-12
	9.474665632486082e-13
	1.700000028075902e-02
	9.999999999921961e-01
	9.999999999843926e-01
	9.999999999921962e-01
	2.852352074856918e-09
	2.852352074856918e-09
	2.766218087923988e-10
	-3.115563682043465e-09
18		1.800000000000001e-02
	1.000000000000000e+00
	1.800000000000001e-02
	9.999936719180891e-01
	9.999936719180891e-01
	9.999936719180891e-01
	1.800000000712210e-02
	8.522435119711704e-12
	1.894965183504765e-12
	9.474825917452741e-13
	1.800000027939906e-02
	9.999999999923410e-01
	9.999999999846825e-01
	9.999999999923412e-01
	2.928553174649014e-09
	2.928553174649014e-09
	2.752905195468891e-10
	-3.190489747395553e-09
19		1.900000000000001e-02
	1.000000000000000e+00
	1.900000000000001e-02
	9.999935046133820e-01
	9.999935046133820e-01
	9.999935046133820e-01
	1.900000000709218e-02
	8.522450314248471e-12
	1.894998082148903e-12
	9.474990410673432e-13
	1.900000027804541e-02
	9.999999999924837e-01
	9.999999999849672e-01
	9.999999999924836e-01
	3.006783959563341e-09
	3.006783959563341e-09
	2.739653781613782e-10
	-3.267451434418867e-09
20		2.000000000000001e-02
	1.000000000000000e+00
	2.000000000000001e-02
	9.999933326264510e-01
	9.999933326264510e-01
	9.999933326264510e-01
	2.000000000706237e-02
	8.522465905446285e-12
	1.895031844348492e-12
	9.475159221671373e-13
	2.000000027669805e-02
	9.999999999926233e-01
	9.999999999852466e-01
	9.999999999926232e-01
	3.087097663926567e-09
	3.087097663926567e-09
	2.726463221858211e-10
	-3.346502019940800e-09
21		2.100000000000001e-02
	1.000000000000000e+00
	2.100000000000001e-02
	9.999931558282816e-01
	9.999931558282816e-01
	9.999931558282816e-01
	2.100000000703267e-02
	8.522481903569140e-12
	1.895066492566736e-12
	9.475332462762594e-13
	2.100000027535691e-02
	9.999999999927603e-01
	9.999999999855208e-01
	9.999999999927605e-01
	3.169548887617998e-09
	3.169548887617998e-09
	2.713333308035359e-10
	-3.427696015911863e-09
22		2.200000000000001e-02
	1.000000000000000e+00
	2.200000000000001e-02
	9.999929740863450e-01
	9.999929740863450e-01
	9.999929740863450e-01
	2.200000000700310e-02
	8.522498319140616e-12
	1.895102049838737e-12
	9.475510249122598e-13
	2.200000027402199e-02
	9.999999999928953e-01
	9.999999999857901e-01
	9.999999999928950e-01
	3.254193630818254e-09
	3.254193630818254e-09
	2.700263831978411e-10
	-3.511089224916830e-09
23		2.300000000000001e-02
	1.000000000000000e+00
	2.300000000000001e-02
	9.999927872645044e-01
	9.999927872645044e-01
	9.999927872645044e-01
	2.300000000697363e-02
	8.522515162950045e-12
	1.895138539785198e-12
	9.475692698854901e-13
	2.300000027269320e-02
	9.999999999930270e-01
	9.999999999860543e-01
	9.999999999930271e-01
	3.341089327944802e-09
	3.341089327944802e-09
	2.687253891631158e-10
	-3.596739281408468e-09
24		2.400000000000001e-02
	1.000000000000000e+00
	2.400000000000001e-02
	9.999925952229198e-01
	9.999925952229198e-01
	9.999925952229198e-01
	2.400000000694428e-02
	8.522532446058785e-12
	1.895175986626443e-12
	9.475879933061124e-13
	2.400000027137054e-02
	9.999999999931568e-01
	9.999999999863138e-01
	9.999999999931569e-01
	3.430294883430621e-09
	3.430294883430621e-09
	2.674303625771479e-10
	-3.684704735773536e-09
25		2.500000000000002e-02
	1.000000000000000e+00
	2.500000000000002e-02
	9.999923978179494e-01
	9.999923978179494e-01
	9.999923978179494e-01
	2.500000000691503e-02
	8.522550179806696e-12
	1.895214415196817e-12
	9.476072075912993e-13
	2.500000027005394e-02
	9.999999999932844e-01
	9.999999999865686e-01
	9.999999999932843e-01
	3.521870708044980e-09
	3.521870708044980e-09
	2.661411993565288e-10
	-3.775046150678030e-09
26		2.600000000000002e-02
	1.000000000000000e+00
	2.600000000000002e-02
	9.999921949020466e-01
	9.999921949020466e-01
	9.999921949020466e-01
	2.600000000688590e-02
	8.522568375818714e-12
	1.895253850959390e-12
	9.476269254725858e-13
	2.600000026874338e-02
	9.999999999934092e-01
	9.999999999868185e-01
	9.999999999934093e-01
	3.615878755756311e-09
	3.615878755756311e-09
	2.648579480735158e-10
	-3.867825684733539e-09
27		2.700000000000002e-02
	1.000000000000000e+00
	2.700000000000002e-02
	9.999919863236593e-01
	9.999919863236593e-01
	9.999919863236593e-01
	2.700000000685688e-02
	8.522587046011643e-12
	1.895294320021053e-12
	9.476471600034167e-13
	2.700000026743882e-02
	9.999999999935320e-01
	9.999999999870639e-01
	9.999999999935320e-01
	3.712382562004544e-09
	3.712382562004544e-09
	2.635804907669126e-10
	-3.963106384730075e-09
28		2.800000000000002e-02
	1.000000000000000e+00
	2.800000000000002e-02
	9.999917719271191e-01
	9.999917719271191e-01
	9.999917719271191e-01
	2.800000000682797e-02
	8.522606202601036e-12
	1.895335849147940e-12
	9.476679245668600e-13
	2.800000026614020e-02
	9.999999999936523e-01
	9.999999999873050e-01
	9.999999999936525e-01
	3.811447282895015e-09
	3.811447282895015e-09
	2.623088343756130e-10
	-4.060953615048213e-09
29		2.900000000000002e-02
	1.000000000000000e+00
	2.900000000000002e-02
	9.999915515525358e-01
	9.999915515525358e-01
	9.999915515525358e-01
	2.900000000679917e-02
	8.522625858108298e-12
	1.895378465781206e-12
	9.476892328834934e-13
	2.900000026484751e-02
	9.999999999937706e-01
	9.999999999875415e-01
	9.999999999937708e-01
	3.913139734500800e-09
	3.913139734500800e-09
	2.610429164495720e-10
	-4.161434294380761e-09
30		3.000000000000002e-02
	1.000000000000000e+00
	3.000000000000002e-02
	9.999913250356848e-01
	9.999913250356848e-01
	9.999913250356848e-01
	3.000000000677048e-02
	8.522646025367901e-12
	1.895422198053174e-12
	9.477110990194770e-13
	3.000000026356069e-02
	9.999999999938867e-01
	9.999999999877736e-01
	9.999999999938868e-01
	4.017528433140818e-09
	4.017528433140818e-09
	2.597827300498956e-10
	-4.264616618177008e-09
31		3.100000000000002e-02
	1.000000000000000e+00
	3.100000000000002e-02
	9.999910922078900e-01
	9.999910922078900e-01
	9.999910922078900e-01
	3.100000000674190e-02
	8.522666717534773e-12
	1.895467074803836e-12
	9.477335373948076e-13
	3.100000026227972e-02
	9.999999999940006e-01
	9.999999999880017e-01
	9.999999999940008e-01
	4.124683638476873e-09
	4.124683638476873e-09
	2.585282266043265e-10
	-4.370570766409898e-09
32		3.200000000000002e-02
	1.000000000000000e+00
	3.200000000000002e-02
	9.999908528959076e-01
	9.999908528959076e-01
	9.999908528959076e-01
	3.200000000671342e-02
	8.522687948091852e-12
	1.895513125597723e-12
	9.477565627917512e-13
	3.200000026100456e-02
	9.999999999941126e-01
	9.999999999882252e-01
	9.999999999941126e-01
	4.234677395038595e-09
	4.234677395038595e-09
	2.572793644795013e-10
	-4.479369097865060e-09
33		3.300000000000002e-02
	1.000000000000000e+00
	3.300000000000002e-02
	9.999906069218057e-01
	9.999906069218057e-01
	9.999906069218057e-01
	3.300000000668506e-02
	8.522709730857808e-12
	1.895560380741157e-12
	9.477801903634678e-13
	3.300000025973517e-02
	9.999999999942221e-01
	9.999999999884446e-01
	9.999999999942223e-01
	4.347583575862578e-09
	4.347583575862578e-09
	2.560361297976321e-10
	-4.591085289717967e-09
34		3.400000000000002e-02
	1.000000000000000e+00
	3.400000000000002e-02
	9.999903541028394e-01
	9.999903541028394e-01
	9.999903541028394e-01
	3.400000000665680e-02
	8.522732079994917e-12
	1.895608871299866e-12
	9.478044356428220e-13
	3.400000025847150e-02
	9.999999999943299e-01
	9.999999999886603e-01
	9.999999999943301e-01
	4.463477927269931e-09
	4.463477927269931e-09
	2.547984601086739e-10
	-4.705794975912170e-09
35		3.500000000000002e-02
	1.000000000000000e+00
	3.500000000000002e-02
	9.999900942513239e-01
	9.999900942513239e-01
	9.999900942513239e-01
	3.500000000662866e-02
	8.522755010017116e-12
	1.895658629116988e-12
	9.478293145513831e-13
	3.500000025721355e-02
	9.999999999944359e-01
	9.999999999888721e-01
	9.999999999944360e-01
	4.582438114565397e-09
	4.582438114565397e-09
	2.535663762293083e-10
	-4.823575719403728e-09
36		3.600000000000003e-02
	1.000000000000000e+00
	3.600000000000003e-02
	9.999898271745039e-01
	9.999898271745039e-01
	9.999898271745039e-01
	3.600000000660062e-02
	8.522778535798212e-12
	1.895709686831474e-12
	9.478548434086256e-13
	3.600000025596124e-02
	9.999999999945399e-01
	9.999999999890797e-01
	9.999999999945399e-01
	4.704543768712256e-09
	4.704543768712256e-09
	2.523397463205512e-10
	-4.944507400739262e-09
37		3.700000000000003e-02
	1.000000000000000e+00
	3.700000000000003e-02
	9.999895526744205e-01
	9.999895526744205e-01
	9.999895526744205e-01
	3.700000000657269e-02
	8.522802672580282e-12
	1.895762077896862e-12
	9.478810389413198e-13
	3.700000025471456e-02
	9.999999999946420e-01
	9.999999999892837e-01
	9.999999999946418e-01
	4.829876533874594e-09
	4.829876533874594e-09
	2.511186258935538e-10
	-5.068671329877539e-09
38		3.800000000000003e-02
	1.000000000000000e+00
	3.800000000000003e-02
	9.999892705477748e-01
	9.999892705477748e-01
	9.999892705477748e-01
	3.800000000654487e-02
	8.522827435982254e-12
	1.895815836600486e-12
	9.479079182931315e-13
	3.800000025347348e-02
	9.999999999947419e-01
	9.999999999894837e-01
	9.999999999947419e-01
	4.958520116097979e-09
	4.958520116097979e-09
	2.499029316815893e-10
	-5.196151411923644e-09
39		3.900000000000003e-02
	1.000000000000000e+00
	3.900000000000003e-02
	9.999889805857852e-01
	9.999889805857852e-01
	9.999889805857852e-01
	3.900000000651715e-02
	8.522852842008620e-12
	1.895870998083053e-12
	9.479354990344148e-13
	3.900000025223796e-02
	9.999999999948400e-01
	9.999999999896800e-01
	9.999999999948400e-01
	5.090560333508021e-09
	5.090560333508021e-09
	2.486926498068698e-10
	-5.327033342217291e-09
40		4.000000000000003e-02
	1.000000000000000e+00
	4.000000000000003e-02
	9.999886825740461e-01
	9.999886825740461e-01
	9.999886825740461e-01
	4.000000000648953e-02
	8.522878907058385e-12
	1.895927598358663e-12
	9.479637991722197e-13
	4.000000025100797e-02
	9.999999999949364e-01
	9.999999999898728e-01
	9.999999999949364e-01
	5.226085166996821e-09
	5.226085166996821e-09
	2.474877525138197e-10
	-5.461405092055394e-09
41		4.100000000000003e-02
	1.000000000000000e+00
	4.100000000000003e-02
	9.999883762923779e-01
	9.999883762923779e-01
	9.999883762923779e-01
	4.100000000646203e-02
	8.522905647934167e-12
	1.895985674335244e-12
	9.479928371605099e-13
	4.100000024978346e-02
	9.999999999950306e-01
	9.999999999900619e-01
	9.999999999950310e-01
	5.365184812644152e-09
	5.365184812644152e-09
	2.462881981690757e-10
	-5.599356839303127e-09
42		4.200000000000003e-02
	1.000000000000000e+00
	4.200000000000003e-02
	9.999880615146765e-01
	9.999880615146765e-01
	9.999880615146765e-01
	4.200000000643463e-02
	8.522933081851472e-12
	1.896045263835372e-12
	9.480226319105735e-13
	4.200000024856441e-02
	9.999999999951238e-01
	9.999999999902478e-01
	9.999999999951239e-01
	5.507951735331251e-09
	5.507951735331251e-09
	2.450939728948498e-10
	-5.740980815738261e-09
43		4.300000000000003e-02
	1.000000000000000e+00
	4.300000000000003e-02
	9.999877380087588e-01
	9.999877380087588e-01
	9.999877380087588e-01
	4.300000000640733e-02
	8.522961226448210e-12
	1.896106405617604e-12
	9.480532028016896e-13
	4.300000024735080e-02
	9.999999999952148e-01
	9.999999999904300e-01
	9.999999999952149e-01
	5.654480722300410e-09
	5.654480722300410e-09
	2.439050211799909e-10
	-5.886372014818342e-09
44		4.400000000000003e-02
	1.000000000000000e+00
	4.400000000000003e-02
	9.999874055362026e-01
	9.999874055362026e-01
	9.999874055362026e-01
	4.400000000638014e-02
	8.522990099794330e-12
	1.896169139398181e-12
	9.480845696919777e-13
	4.400000024614258e-02
	9.999999999953042e-01
	9.999999999906091e-01
	9.999999999953045e-01
	5.804868939696117e-09
	5.804868939696117e-09
	2.427213430244990e-10
	-6.035627470035720e-09
45		4.500000000000003e-02
	1.000000000000000e+00
	4.500000000000003e-02
	9.999870638521829e-01
	9.999870638521829e-01
	9.999870638521829e-01
	4.500000000635306e-02
	8.523019720401681e-12
	1.896233505873170e-12
	9.481167529294722e-13
	4.500000024493971e-02
	9.999999999953924e-01
	9.999999999907847e-01
	9.999999999953924e-01
	5.959215989648301e-09
	5.959215989648301e-09
	2.415428690394350e-10
	-6.188846907173584e-09
46		4.600000000000003e-02
	1.000000000000000e+00
	4.600000000000003e-02
	9.999867127053076e-01
	9.999867127053076e-01
	9.999867127053076e-01
	4.600000000632606e-02
	8.523050107234101e-12
	1.896299546741135e-12
	9.481497733634543e-13
	4.600000024374220e-02
	9.999999999954783e-01
	9.999999999909570e-01
	9.999999999954785e-01
	6.117623967843468e-09
	6.117623967843468e-09
	2.403695853470111e-10
	-6.346132286338957e-09
47		4.700000000000003e-02
	1.000000000000000e+00
	4.700000000000003e-02
	9.999863518374420e-01
	9.999863518374420e-01
	9.999863518374420e-01
	4.700000000629919e-02
	8.523081279717636e-12
	1.896367304726181e-12
	9.481836523559770e-13
	4.700000024254997e-02
	9.999999999955629e-01
	9.999999999911262e-01
	9.999999999955631e-01
	6.280197523481079e-09
	6.280197523481079e-09
	2.392014641916518e-10
	-6.507588093396244e-09
48		4.800000000000004e-02
	1.000000000000000e+00
	4.800000000000004e-02
	9.999859809835363e-01
	9.999859809835363e-01
	9.999859809835363e-01
	4.800000000627241e-02
	8.523113257751001e-12
	1.896436823601485e-12
	9.482184117936288e-13
	4.800000024136301e-02
	9.999999999956461e-01
	9.999999999912924e-01
	9.999999999956461e-01
	6.447043920151507e-09
	6.447043920151507e-09
	2.380384916955691e-10
	-6.673321686911926e-09
49		4.900000000000004e-02
	1.000000000000000e+00
	4.900000000000004e-02
	9.999855998714441e-01
	9.999855998714441e-01
	9.999855998714441e-01
	4.900000000624573e-02
	8.523146061716245e-12
	1.896508148213349e-12
	9.482540740995606e-13
	4.900000024018130e-02
	9.999999999957276e-01
	9.999999999914555e-01
	9.999999999957278e-01
	6.618273098123444e-09
	6.618273098123444e-09
	2.368805984698241e-10
	-6.843442951209866e-09
50		5.000000000000004e-02
	1.000000000000000e+00
	5.000000000000004e-02
	9.999852082217389e-01
	9.999852082217389e-01
	9.999852082217389e-01
	5.000000000621916e-02
	8.523179712489600e-12
	1.896581324505633e-12
	9.482906622457021e-13
	5.000000023900479e-02
	9.999999999958076e-01
	9.999999999916155e-01
	9.999999999958078e-01
	6.793997737065006e-09
	6.793997737065006e-09
	2.357278122699924e-10
	-7.018064573927063e-09
51		5.100000000000004e-02
	1.000000000000000e+00
	5.100000000000004e-02
	9.999848057475234e-01
	9.999848057475234e-01
	9.999848057475234e-01
	5.100000000619268e-02
	8.523214231452563e-12
	1.896656399544781e-12
	9.483281997652758e-13
	5.100000023783346e-02
	9.999999999958860e-01
	9.999999999917724e-01
	9.999999999958862e-01
	6.974333322396897e-09
	6.974333322396897e-09
	2.345800081959837e-10
	-7.197302073769229e-09
52		5.200000000000004e-02
	1.000000000000000e+00
	5.200000000000004e-02
	9.999843921542375e-01
	9.999843921542375e-01
	9.999843921542375e-01
	5.200000000616632e-02
	8.523249640503146e-12
	1.896733421545225e-12
	9.483667107654972e-13
	5.200000023666728e-02
	9.999999999959632e-01
	9.999999999919266e-01
	9.999999999959632e-01
	7.159398210290335e-09
	7.159398210290335e-09
	2.334372972701004e-10
	-7.381273703366276e-09
53		5.300000000000004e-02
	1.000000000000000e+00
	5.300000000000004e-02
	9.999839671394579e-01
	9.999839671394579e-01
	9.999839671394579e-01
	5.300000000614005e-02
	8.523285962067386e-12
	1.896812439895390e-12
	9.484062199405797e-13
	5.300000023550621e-02
	9.999999999960385e-01
	9.999999999920777e-01
	9.999999999960388e-01
	7.349313696405468e-09
	7.349313696405468e-09
	2.322995407144646e-10
	-7.570100768461430e-09
54		5.400000000000004e-02
	1.000000000000000e+00
	5.400000000000004e-02
	9.999835303926973e-01
	9.999835303926973e-01
	9.999835303926973e-01
	5.400000000611389e-02
	8.523323219111039e-12
	1.896893505184097e-12
	9.484467525849330e-13
	5.400000023435025e-02
	9.999999999961129e-01
	9.999999999922263e-01
	9.999999999961131e-01
	7.544204084412951e-09
	7.544204084412951e-09
	2.311667524068639e-10
	-7.763907391988845e-09
55		5.500000000000004e-02
	1.000000000000000e+00
	5.500000000000004e-02
	9.999830815951921e-01
	9.999830815951921e-01
	9.999830815951921e-01
	5.500000000608782e-02
	8.523361435151497e-12
	1.896976669227581e-12
	9.484883346066749e-13
	5.500000023319934e-02
	9.999999999961857e-01
	9.999999999923719e-01
	9.999999999961859e-01
	7.744196757280240e-09
	7.744196757280240e-09
	2.300389184695106e-10
	-7.962821166329626e-09
56		5.600000000000004e-02
	1.000000000000000e+00
	5.600000000000004e-02
	9.999826204196922e-01
	9.999826204196922e-01
	9.999826204196922e-01
	5.600000000606185e-02
	8.523400634269912e-12
	1.897061985096900e-12
	9.485309925413338e-13
	5.600000023205347e-02
	9.999999999962573e-01
	9.999999999925150e-01
	9.999999999962574e-01
	7.949422249479456e-09
	7.949422249479456e-09
	2.289159695134657e-10
	-8.166972279011198e-09
57		5.700000000000004e-02
	1.000000000000000e+00
	5.700000000000004e-02
	9.999821465302401e-01
	9.999821465302401e-01
	9.999821465302401e-01
	5.700000000603599e-02
	8.523440841123572e-12
	1.897149507145993e-12
	9.485747535658801e-13
	5.700000023091260e-02
	9.999999999963276e-01
	9.999999999926553e-01
	9.999999999963276e-01
	8.160014320496289e-09
	8.160014320496289e-09
	2.277979194165169e-10
	-8.376494831097148e-09
58		5.800000000000004e-02
	1.000000000000000e+00
	5.800000000000004e-02
	9.999816595819476e-01
	9.999816595819476e-01
	9.999816595819476e-01
	5.800000000601022e-02
	8.523482080958458e-12
	1.897239291040140e-12
	9.486196455129532e-13
	5.800000022977672e-02
	9.999999999963965e-01
	9.999999999927931e-01
	9.999999999963965e-01
	8.376110030561528e-09
	8.376110030561528e-09
	2.266846849119375e-10
	-8.591525629819685e-09
59		5.900000000000005e-02
	1.000000000000000e+00
	5.900000000000005e-02
	9.999811592207649e-01
	9.999811592207649e-01
	9.999811592207649e-01
	5.900000000598455e-02
	8.523524379622036e-12
	1.897331393785026e-12
	9.486656968853960e-13
	5.900000022864579e-02
	9.999999999964638e-01
	9.999999999929282e-01
	9.999999999964642e-01
	8.597849817520986e-09
	8.597849817520986e-09
	2.255763076330908e-10
	-8.812205173902576e-09
60		6.000000000000005e-02
	1.000000000000000e+00
	6.000000000000005e-02
	9.999806450832465e-01
	9.999806450832465e-01
	9.999806450832465e-01
	6.000000000595897e-02
	8.523567763576316e-12
	1.897425873756352e-12
	9.487129368710586e-13
	6.000000022751979e-02
	9.999999999965302e-01
	9.999999999930610e-01
	9.999999999965306e-01
	8.825377575711214e-09
	8.825377575711214e-09
	2.244727459466134e-10
	-9.038677278860874e-09
61		6.100000000000005e-02
	1.000000000000000e+00
	6.100000000000005e-02
	9.999801167963096e-01
	9.999801167963096e-01
	9.999801167963096e-01
	6.100000000593350e-02
	8.523612259911066e-12
	1.897522790729894e-12
	9.487613953578290e-13
	6.100000022639868e-02
	9.999999999965953e-01
	9.999999999931912e-01
	9.999999999965956e-01
	9.058840735431516e-09
	9.058840735431516e-09
	2.233739443413540e-10
	-9.271089368434460e-09
62		6.200000000000005e-02
	1.000000000000000e+00
	6.200000000000005e-02
	9.999795739769869e-01
	9.999795739769869e-01
	9.999795739769869e-01
	6.200000000590814e-02
	8.523657896357303e-12
	1.897622205912196e-12
	9.488111029489796e-13
	6.200000022528243e-02
	9.999999999966593e-01
	9.999999999933191e-01
	9.999999999966596e-01
	9.298390346048051e-09
	9.298390346048051e-09
	2.222798889395250e-10
	-9.509592502343622e-09
63		6.300000000000004e-02
	1.000000000000000e+00
	6.300000000000004e-02
	9.999790162321732e-01
	9.999790162321732e-01
	9.999790162321732e-01
	6.300000000588285e-02
	8.523704701301011e-12
	1.897724181971807e-12
	9.488620909787847e-13
	6.300000022417104e-02
	9.999999999967220e-01
	9.999999999934446e-01
	9.999999999967223e-01
	9.544181159477395e-09
	9.544181159477395e-09
	2.211905797411262e-10
	-9.754341404044631e-09
64		6.400000000000004e-02
	1.000000000000000e+00
	6.400000000000004e-02
	9.999784431583673e-01
	9.999784431583673e-01
	9.999784431583673e-01
	6.400000000585766e-02
	8.523752703797063e-12
	1.897828783070987e-12
	9.489143915283742e-13
	6.400000022306448e-02
	9.999999999967838e-01
	9.999999999935678e-01
	9.999999999967839e-01
	9.796371714916943e-09
	9.796371714916943e-09
	2.201059196016431e-10
	-1.000549457175204e-08
65		6.500000000000004e-02
	1.000000000000000e+00
	6.500000000000004e-02
	9.999778543414054e-01
	9.999778543414054e-01
	9.999778543414054e-01
	6.500000000583260e-02
	8.523801933583395e-12
	1.897936074898066e-12
	9.489680374419134e-13
	6.500000022196269e-02
	9.999999999968441e-01
	9.999999999936884e-01
	9.999999999968442e-01
	1.005512442688213e-08
	1.005512442688213e-08
	2.190259917878024e-10
	-1.026321445884992e-08
66		6.600000000000004e-02
	1.000000000000000e+00
	6.600000000000004e-02
	9.999772493561903e-01
	9.999772493561903e-01
	9.999772493561903e-01
	6.600000000580761e-02
	8.523852421095414e-12
	1.898046124700317e-12
	9.490230623430385e-13
	6.600000022086569e-02
	9.999999999969031e-01
	9.999999999938070e-01
	9.999999999969035e-01
	1.032060567383994e-08
	1.032060567383994e-08
	2.179507130328773e-10
	-1.052766716858056e-08
67		6.700000000000005e-02
	1.000000000000000e+00
	6.700000000000005e-02
	9.999766277664121e-01
	9.999766277664121e-01
	9.999766277664121e-01
	6.700000000578271e-02
	8.523904197480626e-12
	1.898159001317402e-12
	9.490795006515806e-13
	6.700000021977341e-02
	9.999999999969612e-01
	9.999999999939233e-01
	9.999999999969617e-01
	1.059298588955296e-08
	1.059298588955296e-08
	2.168800417035044e-10
	-1.079902334222282e-08
68		6.800000000000005e-02
	1.000000000000000e+00
	6.800000000000005e-02
	9.999759891242644e-01
	9.999759891242644e-01
	9.999759891242644e-01
	6.800000000575793e-02
	8.523957294613515e-12
	1.898274775215382e-12
	9.491373876005701e-13
	6.800000021868584e-02
	9.999999999970186e-01
	9.999999999940378e-01
	9.999999999970188e-01
	1.087243965523657e-08
	1.087243965523657e-08
	2.158139222885325e-10
	-1.107745747908062e-08
69		6.900000000000005e-02
	1.000000000000000e+00
	6.900000000000005e-02
	9.999753329701504e-01
	9.999753329701504e-01
	9.999753329701504e-01
	6.900000000573324e-02
	8.524011745110630e-12
	1.898393518521305e-12
	9.491967592535314e-13
	6.900000021760298e-02
	9.999999999970745e-01
	9.999999999941497e-01
	9.999999999970748e-01
	1.115914579496871e-08
	1.115914579496871e-08
	2.147524935658396e-10
	-1.136314847771658e-08
70		7.000000000000005e-02
	1.000000000000000e+00
	7.000000000000005e-02
	9.999746588323856e-01
	9.999746588323856e-01
	9.999746588323856e-01
	7.000000000570863e-02
	8.524067582345929e-12
	1.898515305058362e-12